# vtk DataFile Version 3.0
My example
ASCII

DATASET UNSTRUCTURED_GRID
POINTS 2601 float
0.000000 0.000000 0
0.003340 0.000000 0
0.007106 0.000000 0
0.011352 0.000000 0
0.016140 0.000000 0
0.021538 0.000000 0
0.027624 0.000000 0
0.034486 0.000000 0
0.042223 0.000000 0
0.050946 0.000000 0
0.060782 0.000000 0
0.071872 0.000000 0
0.084375 0.000000 0
0.098473 0.000000 0
0.114368 0.000000 0
0.132290 0.000000 0
0.152497 0.000000 0
0.175280 0.000000 0
0.200967 0.000000 0
0.229930 0.000000 0
0.262586 0.000000 0
0.299405 0.000000 0
0.340918 0.000000 0
0.387724 0.000000 0
0.440498 0.000000 0
0.500000 0.000000 0
0.559502 0.000000 0
0.612276 0.000000 0
0.659082 0.000000 0
0.700595 0.000000 0
0.737414 0.000000 0
0.770070 0.000000 0
0.799033 0.000000 0
0.824720 0.000000 0
0.847503 0.000000 0
0.867710 0.000000 0
0.885632 0.000000 0
0.901527 0.000000 0
0.915625 0.000000 0
0.928128 0.000000 0
0.939218 0.000000 0
0.949054 0.000000 0
0.957777 0.000000 0
0.965514 0.000000 0
0.972376 0.000000 0
0.978462 0.000000 0
0.983860 0.000000 0
0.988648 0.000000 0
0.992894 0.000000 0
0.996660 0.000000 0
1.000000 0.000000 0
0.000000 0.003340 0
0.003340 0.003340 0
0.007106 0.003340 0
0.011352 0.003340 0
0.016140 0.003340 0
0.021538 0.003340 0
0.027624 0.003340 0
0.034486 0.003340 0
0.042223 0.003340 0
0.050946 0.003340 0
0.060782 0.003340 0
0.071872 0.003340 0
0.084375 0.003340 0
0.098473 0.003340 0
0.114368 0.003340 0
0.132290 0.003340 0
0.152497 0.003340 0
0.175280 0.003340 0
0.200967 0.003340 0
0.229930 0.003340 0
0.262586 0.003340 0
0.299405 0.003340 0
0.340918 0.003340 0
0.387724 0.003340 0
0.440498 0.003340 0
0.500000 0.003340 0
0.559502 0.003340 0
0.612276 0.003340 0
0.659082 0.003340 0
0.700595 0.003340 0
0.737414 0.003340 0
0.770070 0.003340 0
0.799033 0.003340 0
0.824720 0.003340 0
0.847503 0.003340 0
0.867710 0.003340 0
0.885632 0.003340 0
0.901527 0.003340 0
0.915625 0.003340 0
0.928128 0.003340 0
0.939218 0.003340 0
0.949054 0.003340 0
0.957777 0.003340 0
0.965514 0.003340 0
0.972376 0.003340 0
0.978462 0.003340 0
0.983860 0.003340 0
0.988648 0.003340 0
0.992894 0.003340 0
0.996660 0.003340 0
1.000000 0.003340 0
0.000000 0.007106 0
0.003340 0.007106 0
0.007106 0.007106 0
0.011352 0.007106 0
0.016140 0.007106 0
0.021538 0.007106 0
0.027624 0.007106 0
0.034486 0.007106 0
0.042223 0.007106 0
0.050946 0.007106 0
0.060782 0.007106 0
0.071872 0.007106 0
0.084375 0.007106 0
0.098473 0.007106 0
0.114368 0.007106 0
0.132290 0.007106 0
0.152497 0.007106 0
0.175280 0.007106 0
0.200967 0.007106 0
0.229930 0.007106 0
0.262586 0.007106 0
0.299405 0.007106 0
0.340918 0.007106 0
0.387724 0.007106 0
0.440498 0.007106 0
0.500000 0.007106 0
0.559502 0.007106 0
0.612276 0.007106 0
0.659082 0.007106 0
0.700595 0.007106 0
0.737414 0.007106 0
0.770070 0.007106 0
0.799033 0.007106 0
0.824720 0.007106 0
0.847503 0.007106 0
0.867710 0.007106 0
0.885632 0.007106 0
0.901527 0.007106 0
0.915625 0.007106 0
0.928128 0.007106 0
0.939218 0.007106 0
0.949054 0.007106 0
0.957777 0.007106 0
0.965514 0.007106 0
0.972376 0.007106 0
0.978462 0.007106 0
0.983860 0.007106 0
0.988648 0.007106 0
0.992894 0.007106 0
0.996660 0.007106 0
1.000000 0.007106 0
0.000000 0.011352 0
0.003340 0.011352 0
0.007106 0.011352 0
0.011352 0.011352 0
0.016140 0.011352 0
0.021538 0.011352 0
0.027624 0.011352 0
0.034486 0.011352 0
0.042223 0.011352 0
0.050946 0.011352 0
0.060782 0.011352 0
0.071872 0.011352 0
0.084375 0.011352 0
0.098473 0.011352 0
0.114368 0.011352 0
0.132290 0.011352 0
0.152497 0.011352 0
0.175280 0.011352 0
0.200967 0.011352 0
0.229930 0.011352 0
0.262586 0.011352 0
0.299405 0.011352 0
0.340918 0.011352 0
0.387724 0.011352 0
0.440498 0.011352 0
0.500000 0.011352 0
0.559502 0.011352 0
0.612276 0.011352 0
0.659082 0.011352 0
0.700595 0.011352 0
0.737414 0.011352 0
0.770070 0.011352 0
0.799033 0.011352 0
0.824720 0.011352 0
0.847503 0.011352 0
0.867710 0.011352 0
0.885632 0.011352 0
0.901527 0.011352 0
0.915625 0.011352 0
0.928128 0.011352 0
0.939218 0.011352 0
0.949054 0.011352 0
0.957777 0.011352 0
0.965514 0.011352 0
0.972376 0.011352 0
0.978462 0.011352 0
0.983860 0.011352 0
0.988648 0.011352 0
0.992894 0.011352 0
0.996660 0.011352 0
1.000000 0.011352 0
0.000000 0.016140 0
0.003340 0.016140 0
0.007106 0.016140 0
0.011352 0.016140 0
0.016140 0.016140 0
0.021538 0.016140 0
0.027624 0.016140 0
0.034486 0.016140 0
0.042223 0.016140 0
0.050946 0.016140 0
0.060782 0.016140 0
0.071872 0.016140 0
0.084375 0.016140 0
0.098473 0.016140 0
0.114368 0.016140 0
0.132290 0.016140 0
0.152497 0.016140 0
0.175280 0.016140 0
0.200967 0.016140 0
0.229930 0.016140 0
0.262586 0.016140 0
0.299405 0.016140 0
0.340918 0.016140 0
0.387724 0.016140 0
0.440498 0.016140 0
0.500000 0.016140 0
0.559502 0.016140 0
0.612276 0.016140 0
0.659082 0.016140 0
0.700595 0.016140 0
0.737414 0.016140 0
0.770070 0.016140 0
0.799033 0.016140 0
0.824720 0.016140 0
0.847503 0.016140 0
0.867710 0.016140 0
0.885632 0.016140 0
0.901527 0.016140 0
0.915625 0.016140 0
0.928128 0.016140 0
0.939218 0.016140 0
0.949054 0.016140 0
0.957777 0.016140 0
0.965514 0.016140 0
0.972376 0.016140 0
0.978462 0.016140 0
0.983860 0.016140 0
0.988648 0.016140 0
0.992894 0.016140 0
0.996660 0.016140 0
1.000000 0.016140 0
0.000000 0.021538 0
0.003340 0.021538 0
0.007106 0.021538 0
0.011352 0.021538 0
0.016140 0.021538 0
0.021538 0.021538 0
0.027624 0.021538 0
0.034486 0.021538 0
0.042223 0.021538 0
0.050946 0.021538 0
0.060782 0.021538 0
0.071872 0.021538 0
0.084375 0.021538 0
0.098473 0.021538 0
0.114368 0.021538 0
0.132290 0.021538 0
0.152497 0.021538 0
0.175280 0.021538 0
0.200967 0.021538 0
0.229930 0.021538 0
0.262586 0.021538 0
0.299405 0.021538 0
0.340918 0.021538 0
0.387724 0.021538 0
0.440498 0.021538 0
0.500000 0.021538 0
0.559502 0.021538 0
0.612276 0.021538 0
0.659082 0.021538 0
0.700595 0.021538 0
0.737414 0.021538 0
0.770070 0.021538 0
0.799033 0.021538 0
0.824720 0.021538 0
0.847503 0.021538 0
0.867710 0.021538 0
0.885632 0.021538 0
0.901527 0.021538 0
0.915625 0.021538 0
0.928128 0.021538 0
0.939218 0.021538 0
0.949054 0.021538 0
0.957777 0.021538 0
0.965514 0.021538 0
0.972376 0.021538 0
0.978462 0.021538 0
0.983860 0.021538 0
0.988648 0.021538 0
0.992894 0.021538 0
0.996660 0.021538 0
1.000000 0.021538 0
0.000000 0.027624 0
0.003340 0.027624 0
0.007106 0.027624 0
0.011352 0.027624 0
0.016140 0.027624 0
0.021538 0.027624 0
0.027624 0.027624 0
0.034486 0.027624 0
0.042223 0.027624 0
0.050946 0.027624 0
0.060782 0.027624 0
0.071872 0.027624 0
0.084375 0.027624 0
0.098473 0.027624 0
0.114368 0.027624 0
0.132290 0.027624 0
0.152497 0.027624 0
0.175280 0.027624 0
0.200967 0.027624 0
0.229930 0.027624 0
0.262586 0.027624 0
0.299405 0.027624 0
0.340918 0.027624 0
0.387724 0.027624 0
0.440498 0.027624 0
0.500000 0.027624 0
0.559502 0.027624 0
0.612276 0.027624 0
0.659082 0.027624 0
0.700595 0.027624 0
0.737414 0.027624 0
0.770070 0.027624 0
0.799033 0.027624 0
0.824720 0.027624 0
0.847503 0.027624 0
0.867710 0.027624 0
0.885632 0.027624 0
0.901527 0.027624 0
0.915625 0.027624 0
0.928128 0.027624 0
0.939218 0.027624 0
0.949054 0.027624 0
0.957777 0.027624 0
0.965514 0.027624 0
0.972376 0.027624 0
0.978462 0.027624 0
0.983860 0.027624 0
0.988648 0.027624 0
0.992894 0.027624 0
0.996660 0.027624 0
1.000000 0.027624 0
0.000000 0.034486 0
0.003340 0.034486 0
0.007106 0.034486 0
0.011352 0.034486 0
0.016140 0.034486 0
0.021538 0.034486 0
0.027624 0.034486 0
0.034486 0.034486 0
0.042223 0.034486 0
0.050946 0.034486 0
0.060782 0.034486 0
0.071872 0.034486 0
0.084375 0.034486 0
0.098473 0.034486 0
0.114368 0.034486 0
0.132290 0.034486 0
0.152497 0.034486 0
0.175280 0.034486 0
0.200967 0.034486 0
0.229930 0.034486 0
0.262586 0.034486 0
0.299405 0.034486 0
0.340918 0.034486 0
0.387724 0.034486 0
0.440498 0.034486 0
0.500000 0.034486 0
0.559502 0.034486 0
0.612276 0.034486 0
0.659082 0.034486 0
0.700595 0.034486 0
0.737414 0.034486 0
0.770070 0.034486 0
0.799033 0.034486 0
0.824720 0.034486 0
0.847503 0.034486 0
0.867710 0.034486 0
0.885632 0.034486 0
0.901527 0.034486 0
0.915625 0.034486 0
0.928128 0.034486 0
0.939218 0.034486 0
0.949054 0.034486 0
0.957777 0.034486 0
0.965514 0.034486 0
0.972376 0.034486 0
0.978462 0.034486 0
0.983860 0.034486 0
0.988648 0.034486 0
0.992894 0.034486 0
0.996660 0.034486 0
1.000000 0.034486 0
0.000000 0.042223 0
0.003340 0.042223 0
0.007106 0.042223 0
0.011352 0.042223 0
0.016140 0.042223 0
0.021538 0.042223 0
0.027624 0.042223 0
0.034486 0.042223 0
0.042223 0.042223 0
0.050946 0.042223 0
0.060782 0.042223 0
0.071872 0.042223 0
0.084375 0.042223 0
0.098473 0.042223 0
0.114368 0.042223 0
0.132290 0.042223 0
0.152497 0.042223 0
0.175280 0.042223 0
0.200967 0.042223 0
0.229930 0.042223 0
0.262586 0.042223 0
0.299405 0.042223 0
0.340918 0.042223 0
0.387724 0.042223 0
0.440498 0.042223 0
0.500000 0.042223 0
0.559502 0.042223 0
0.612276 0.042223 0
0.659082 0.042223 0
0.700595 0.042223 0
0.737414 0.042223 0
0.770070 0.042223 0
0.799033 0.042223 0
0.824720 0.042223 0
0.847503 0.042223 0
0.867710 0.042223 0
0.885632 0.042223 0
0.901527 0.042223 0
0.915625 0.042223 0
0.928128 0.042223 0
0.939218 0.042223 0
0.949054 0.042223 0
0.957777 0.042223 0
0.965514 0.042223 0
0.972376 0.042223 0
0.978462 0.042223 0
0.983860 0.042223 0
0.988648 0.042223 0
0.992894 0.042223 0
0.996660 0.042223 0
1.000000 0.042223 0
0.000000 0.050946 0
0.003340 0.050946 0
0.007106 0.050946 0
0.011352 0.050946 0
0.016140 0.050946 0
0.021538 0.050946 0
0.027624 0.050946 0
0.034486 0.050946 0
0.042223 0.050946 0
0.050946 0.050946 0
0.060782 0.050946 0
0.071872 0.050946 0
0.084375 0.050946 0
0.098473 0.050946 0
0.114368 0.050946 0
0.132290 0.050946 0
0.152497 0.050946 0
0.175280 0.050946 0
0.200967 0.050946 0
0.229930 0.050946 0
0.262586 0.050946 0
0.299405 0.050946 0
0.340918 0.050946 0
0.387724 0.050946 0
0.440498 0.050946 0
0.500000 0.050946 0
0.559502 0.050946 0
0.612276 0.050946 0
0.659082 0.050946 0
0.700595 0.050946 0
0.737414 0.050946 0
0.770070 0.050946 0
0.799033 0.050946 0
0.824720 0.050946 0
0.847503 0.050946 0
0.867710 0.050946 0
[...]
POINT_DATA 2601
SCALARS Temp float
LOOKUP_TABLE default
100.000000
100.000000
100.000000
100.000000
100.000000
100.000000
100.000000
100.000000
100.000000
100.000000
100.000000
100.000000
100.000000
100.000000
100.000000
100.000000
100.000000
100.000000
100.000000
100.000000
100.000000
100.000000
100.000000
100.000000
100.000000
100.000000
100.000000
100.000000
100.000000
100.000000
100.000000
100.000000
100.000000
100.000000
100.000000
100.000000
100.000000
100.000000
100.000000
100.000000
100.000000
100.000000
100.000000
100.000000
100.000000
100.000000
100.000000
100.000000
100.000000
100.000000
100.000000
400.000000
250.000000
185.994376
155.719411
139.435797
129.588019
123.075860
118.485828
115.098972
112.513811
110.488968
108.870659
107.556275
106.474725
105.575204
104.820443
104.182503
103.640051
103.176555
102.779064
102.437367
102.143432
101.891045
101.675653
101.494462
101.346984
101.246153
101.191413
101.171279
101.179889
101.214541
101.274543
101.360672
101.474964
101.620717
101.802653
102.027260
102.303340
102.642896
103.062508
103.585571
104.246029
105.094920
106.212507
107.732446
109.894241
113.168921
118.589769
128.675216
150.004918
200.000000
400.000000
314.005624
250.000000
207.496771
179.756326
161.190487
148.264809
138.904822
131.893120
126.492626
122.238590
118.826010
116.047376
113.756998
111.849772
110.248077
108.893430
107.741013
106.755996
105.911034
105.184536
104.559495
104.022744
103.564633
103.179236
102.865528
102.651031
102.534565
102.491700
102.509959
102.583587
102.711093
102.894102
103.136905
103.446447
103.832663
104.309162
104.894356
105.613222
106.500041
107.602734
108.989921
110.762791
113.075847
116.174417
120.463987
126.635766
135.867643
150.022168
171.345642
200.000000
400.000000
344.280589
292.503229
250.000000
217.351976
192.924624
174.668989
160.860446
150.234923
141.911698
135.283373
129.927350
125.544634
121.919557
118.893526
116.347790
114.191962
112.356246
110.786095
109.438495
108.279379
107.281840
106.425017
105.693603
105.078198
104.577206
104.234602
104.048523
103.979947
104.008931
104.126250
104.329466
104.621089
105.007836
105.500578
106.114822
106.871709
107.799638
108.936761
110.334739
112.064436
114.224635
116.955441
120.458659
125.027279
131.082157
139.197714
150.056529
164.203146
181.443512
200.000000
400.000000
360.564203
320.243674
282.648024
250.000000
222.958668
201.142056
183.722491
169.813778
158.643663
149.596699
142.201269
136.100948
131.026545
126.773532
123.185091
120.139769
117.542554
115.318468
113.407954
111.763574
110.347713
109.131118
108.092288
107.218024
106.506149
106.019213
105.754612
105.656883
105.697644
105.863706
106.151477
106.564316
107.111442
107.807782
108.674527
109.740325
111.043205
112.633404
114.577386
116.963425
119.909076
123.570463
128.151793
133.909656
141.138736
150.114280
160.963039
173.464878
186.878392
200.000000
400.000000
370.411981
338.809513
307.075376
277.041332
250.000000
226.548356
206.709410
190.161294
176.440471
165.070346
155.622968
147.738724
141.125305
135.548732
130.822720
126.798952
123.359001
120.407962
117.869578
115.682575
113.798054
112.177811
110.793690
109.628416
108.679280
108.029805
107.676605
107.545711
107.599186
107.819279
108.200933
108.748210
109.472741
110.393378
111.536683
112.938103
114.643799
116.713153
119.221871
122.265451
125.962088
130.452990
135.895765
142.443823
150.203496
159.166257
169.132358
179.670306
190.168886
200.000000
400.000000
376.924140
351.735191
325.331011
298.857944
273.451644
250.000000
229.025621
210.699895
194.936429
181.501085
170.100157
160.436083
152.235998
145.262655
139.315753
134.228887
129.864960
126.111515
122.876597
120.085352
117.677458
115.605463
113.834254
112.342310
111.126520
110.294113
109.840912
109.672126
109.738984
110.018436
110.503511
111.198638
112.117501
113.282336
114.724130
116.483416
118.611463
121.171557
124.239852
127.904814
132.263485
137.411915
143.426540
150.334744
158.078168
166.481513
175.247850
183.997816
192.348512
200.000000
400.000000
381.514172
361.095178
339.139554
316.277509
293.290590
270.974379
250.000000
230.825853
213.679077
198.591849
185.462202
174.113530
164.339787
155.934245
148.704998
142.481697
137.117140
132.486282
128.484193
125.023792
122.033907
119.457987
117.253941
115.396014
113.880965
112.842838
112.276716
112.064404
112.144818
112.488689
113.086472
113.942351
115.071308
116.497827
118.255484
120.386906
122.943636
125.985302
129.577158
133.784782
138.664365
144.247586
150.521709
157.409257
164.755893
172.336546
179.884817
187.139167
193.888560
200.000000
400.000000
384.901028
368.106880
349.765077
330.186222
309.838706
289.300105
269.174147
250.000000
232.184183
215.972471
201.459981
188.624646
177.367367
167.547465
159.008735
151.596176
145.165343
139.586810
134.747689
130.551611
126.918170
123.782561
121.096149
118.829254
116.978986
115.709757
115.016055
114.753413
114.846714
115.259314
115.978139
117.006122
118.358224
120.059252
122.142439
124.648059
127.621372
131.109137
135.153777
139.784525
145.005462
150.782057
157.029921
163.611392
170.344867
177.027432
183.465095
189.500458
195.028819
200.000000
400.000000
387.486189
373.507374
358.088302
341.356337
323.559529
305.063571
286.320923
267.815817
250.000000
233.238625
217.780429
203.755064
191.190699
180.041151
170.213380
161.590238
154.046818
147.461032
141.719845
136.722593
132.382722
128.629015
125.407404
122.685055
120.460212
118.931730
118.093788
117.772484
117.876670
118.360849
119.207069
120.415470
121.998959
123.979780
126.386698
129.251868
132.606620
136.475571
140.868728
145.772120
151.138584
156.881800
162.877080
168.971244
175.000610
180.812347
186.282789
191.327716
195.903273
200.000000
400.000000
389.511032
377.761410
364.716627
350.403301
334.929654
318.498915
301.408151
284.027529
266.761375
250.000000
234.075528
219.233011
205.621376
193.301472
182.264298
172.452377
163.779255
156.144954
149.447036
143.587977
138.480022
134.048747
130.236721
127.009379
124.367332
122.548545
121.547399
121.157102
121.268140
121.824286
122.800845
124.192960
126.008599
128.263556
130.976966
134.166362
137.841717
141.998413
146.609751
151.620630
156.944667
162.467090
168.054258
173.568297
178.883110
183.897280
188.540956
192.776226
196.592555
200.000000
400.000000
391.129341
381.173990
370.072650
357.798731
344.377032
329.899843
314.537798
298.540019
282.219571
265.924472
250.000000
234.751730
220.418439
207.159863
195.058792
184.133198
174.352847
165.656069
157.964196
151.192771
145.259947
140.093002
135.634482
131.850419
128.745618
126.602526
125.416559
124.944311
125.055189
125.679867
126.784423
128.356039
130.393996
132.902914
135.886637
139.341945
143.252017
147.580271
152.265894
157.222850
162.343734
167.508655
172.597429
177.502045
182.136258
186.440366
190.381117
193.948065
197.148120
200.000000
400.000000
392.443725
383.952624
374.455366
363.899052
352.261276
339.563917
325.886470
311.375354
296.244936
280.766989
265.248270
250.000000
235.306270
221.398915
208.443717
196.538790
185.722367
175.985879
167.288546
159.570875
152.766190
146.810317
141.650670
137.257378
133.642057
131.137790
129.742341
129.171755
129.271239
129.955438
131.178044
132.914558
135.151144
137.876189
141.073030
144.713383
148.751880
153.122748
157.739851
162.500945
167.295795
172.016525
176.567648
180.873423
184.881289
188.561437
191.903656
194.912855
197.604380
200.000000
400.000000
393.525275
386.243002
378.080443
368.973455
358.874695
347.764002
335.660213
322.632633
308.809301
294.378624
279.581561
264.693730
250.000000
235.767027
222.219966
209.528109
197.800828
187.092390
177.412471
168.739054
161.031515
154.242948
148.332271
143.278594
139.103933
136.199029
134.565974
133.876248
133.947329
134.674345
135.994795
137.868231
140.263048
143.146832
146.478873
150.204688
154.253143
158.536973
162.956995
167.409475
171.794983
176.026653
180.035983
183.775301
187.217131
190.351339
193.181247
195.719649
197.985265
200.000000
400.000000
394.424796
388.150228
381.106474
373.226468
364.451268
354.737345
344.065755
332.452535
319.958849
306.698528
292.840137
278.601085
264.232973
250.000000
236.154689
222.916365
210.456645
198.893941
188.296287
178.690030
170.071844
162.422156
155.719644
149.958786
145.176693
141.829657
139.927004
139.091763
139.109850
139.852919
141.238056
143.204479
145.698700
148.664489
152.036344
155.736286
159.674249
163.751958
167.869447
171.932701
175.860504
179.589095
183.073926
186.288829
189.223391
191.879460
194.267607
196.404016
198.307961
200.000000
400.000000
395.179557
389.751923
383.652210
376.814909
369.177280
360.684247
351.295002
340.991265
329.786620
317.735702
304.941208
291.556283
277.780034
263.845311
250.000000
236.485394
223.516174
211.266186
199.862195
189.385447
179.879502
171.362341
163.841740
157.335263
151.900888
148.069150
145.860733
144.846800
144.777805
145.497782
146.899227
148.897233
151.413789
154.368353
157.673219
161.233047
164.947966
168.719163
172.455350
176.078483
179.527453
182.759301
185.748211
188.482992
190.963893
193.199366
195.203231
196.992399
198.585157
200.000000
400.000000
395.817497
391.106570
385.808038
379.860231
373.201048
365.771113
357.518303
348.403824
338.409762
327.547623
315.866802
303.461210
290.471891
277.083635
263.514606
250.000000
236.772516
224.043833
211.990965
200.749771
190.416182
181.054250
172.710125
165.432906
159.308021
154.949419
152.394825
151.161113
150.959727
151.603275
152.956220
154.907213
157.353407
160.192430
163.319947
166.631348
170.026084
173.412962
176.714763
179.871114
182.839187
185.592518
188.118548
190.415603
192.489905
194.352915
196.019212
197.504897
198.826451
200.000000
400.000000
396.359949
392.258987
387.643754
382.457446
376.640999
370.135040
362.882860
354.834657
345.953182
336.220745
325.647153
314.277633
302.199172
289.543355
276.483826
263.227484
250.000000
237.028200
224.523034
212.666722
201.606771
191.457895
182.312079
174.258004
167.415228
162.490167
159.545128
158.041975
157.650619
158.149526
159.373279
161.184034
163.456560
166.071815
168.916140
171.883767
174.880651
177.827954
180.664055
183.344752
185.841835
188.140625
190.237055
192.134808
193.842813
195.373209
196.739823
197.957081
199.039252
200.000000
400.000000
396.823445
393.244004
389.213905
384.681532
379.592038
373.888485
367.513718
360.413190
352.538968
343.855046
334.343931
324.014121
312.907610
301.106059
288.733814
275.956167
262.971800
250.000000
237.264839
224.979625
213.335366
202.496132
192.603321
183.791144
176.218878
170.693298
167.310860
165.480292
164.829351
165.101641
166.102414
167.669976
169.661680
171.948593
174.415109
176.960761
179.502255
181.974511
184.330240
186.538221
188.580722
190.450614
192.148568
193.680625
195.056226
196.286722
197.384291
198.361213
199.229376
200.000000
400.000000
397.220936
394.088966
390.561505
386.592046
382.130422
377.123403
371.515807
365.252311
358.280155
350.552964
342.035804
332.711454
322.587529
311.703713
300.137805
288.009035
275.476966
262.735161
250.000000
237.496553
225.444836
214.050181
203.501283
193.979763
185.687465
179.536705
175.669579
173.447075
172.457063
172.410401
173.086424
174.304776
175.911984
177.776178
179.785807
181.849634
183.896459
185.873888
187.746148
189.491306
191.098286
192.564079
193.891314
195.086314
196.157605
197.114837
197.968029
198.727083
199.401457
200.000000
400.000000
397.562633
394.815464
391.720621
388.236426
384.317425
379.914648
374.976208
369.448389
363.277407
356.412023
348.807229
340.429125
331.260946
321.309970
310.614553
299.250229
287.333278
275.020375
262.503447
250.000000
237.740852
225.958515
214.880354
204.731526
195.754718
188.968304
184.572790
181.891119
180.477237
180.014721
180.263207
181.030662
182.159765
183.521589
185.012481
186.551840
188.079709
189.553909
190.946867
192.242461
193.433116
194.517346
195.497771
196.379603
197.169543
197.874994
198.503541
199.062606
199.559237
200.000000
400.000000
397.856568
395.440505
392.718160
389.652287
386.201946
382.322542
377.966093
373.081830
367.617278
361.519978
354.740053
347.233810
338.968485
329.928156
320.120498
309.583818
298.393229
286.664634
274.555164
262.259148
250.000000
238.019848
226.570365
215.909908
206.314247
198.901522
193.943340
190.738813
188.817973
187.845887
187.570882
187.796980
188.369303
189.165997
190.093007
191.079871
192.075794
193.045875
193.967600
194.827759
195.619858
196.342068
196.995653
197.583811
198.110852
198.581622
199.001125
199.374285
199.705786
200.000000
400.000000
398.108955
395.977256
393.574983
390.868882
387.822189
384.394537
380.542013
376.217439
371.370985
365.951253
359.906998
353.189683
345.757052
337.577844
328.637659
318.945750
308.542105
297.503868
285.949819
274.041485
261.980152
250.000000
238.359295
227.333623
217.217608
209.214141
203.676288
199.897421
197.397312
195.833907
194.953857
194.564774
194.519263
194.704975
195.037600
195.455303
195.914005
196.383339
196.843249
197.281217
197.690090
198.066417
198.409222
198.719117
198.997683
199.247035
199.469543
199.667641
199.843707
200.000000
400.000000
398.324347
396.435367
394.306397
391.907712
389.206310
386.165746
382.746059
378.903851
374.592596
369.763279
364.365518
358.349330
351.667729
344.280356
336.158260
327.289875
317.687921
307.396679
296.498717
285.119646
273.429635
261.640705
250.000000
238.781100
228.277814
219.752805
213.645480
209.263723
206.133101
203.917355
202.371393
201.313290
200.607024
200.151088
199.870380
199.710023
199.630511
199.603845
199.610508
199.637134
199.674741
199.717426
199.761419
199.804405
199.845041
199.882627
199.916875
199.947756
199.975395
200.000000
400.000000
398.505538
396.820764
394.921802
392.781976
390.371584
387.657690
384.603986
381.170746
377.314945
372.990621
368.149581
362.742622
356.721406
350.041214
342.664737
334.567094
325.741996
316.208856
306.020237
295.268474
284.090092
272.666377
261.218900
250.000000
239.279979
230.345816
223.718804
218.741108
214.960708
212.060333
209.812829
208.053047
206.659735
205.543404
204.637860
203.894101
203.275807
202.755987
202.314494
201.936179
201.609543
201.325752
201.077924
200.860618
200.669463
200.500894
200.351959
200.220182
200.103463
200.000000
400.000000
398.653016
397.134472
395.422794
393.493851
391.320720
388.873480
386.119035
383.021014
379.539788
375.632668
371.254382
366.357943
360.896067
354.823307
348.099112
340.691979
332.584772
323.781122
314.312535
304.245282
293.685753
282.782392
271.722186
260.720021
250.000000
240.827171
233.786541
228.270839
223.865557
220.284799
217.328648
214.855119
212.761671
210.972951
209.432576
208.097587
206.934649
205.917435
205.024796
204.239478
203.547201
202.935995
202.395719
201.917705
201.494478
201.119559
200.787302
200.492762
200.231602
200.000000
400.000000
398.753847
397.348969
395.765398
393.980787
391.970195
389.705887
387.157162
384.290243
381.068270
377.451455
373.397474
368.862210
363.800971
358.170343
351.930850
345.050581
337.509833
329.306702
320.463295
311.031696
301.098478
290.785859
280.247195
269.654184
259.172829
250.000000
242.747099
236.860589
231.969093
227.823556
224.255887
221.150893
218.427572
216.026891
213.903973
212.023231
210.355372
208.875576
207.562388
206.397013
205.362868
204.445249
203.631100
202.908815
202.268073
201.699703
201.195556
200.748387
200.351772
200.000000
400.000000
398.808587
397.465435
395.951477
394.245388
392.323395
390.159088
387.723284
384.983945
381.906212
378.452601
374.583441
370.257659
365.434026
360.072996
354.139267
347.605175
340.454872
332.689140
324.330421
315.427210
306.056660
296.323712
286.354520
276.281196
266.213459
257.252901
250.000000
243.946730
238.760125
234.224920
230.203098
226.605751
223.373974
220.466388
217.851387
215.502664
213.396809
211.512174
209.828431
208.326456
206.988357
205.797519
204.738644
203.797747
202.962125
202.220302
201.561955
200.977824
200.459634
200.000000
400.000000
398.828721
397.508300
396.020053
394.343117
392.454289
390.327874
387.935596
385.246587
382.227516
378.842898
375.055689
370.828245
366.123752
360.908237
355.153200
348.838887
341.958025
334.519708
326.552925
318.108881
309.261187
300.102579
290.736277
281.258892
271.729161
263.139411
256.053270
250.000000
244.678346
239.901302
235.556963
231.580614
227.935183
224.598112
221.553140
218.785695
216.280705
214.021900
211.991941
210.172862
208.546621
207.095566
205.802804
204.652454
203.629782
202.721270
201.914614
201.198684
200.563472
200.000000
400.000000
398.820111
397.490041
395.991069
394.302356
392.400814
390.261016
387.855182
385.153286
382.123330
378.731860
374.944811
370.728761
366.052671
360.890150
355.222195
349.040273
342.349381
335.170649
327.542937
319.522763
311.182027
302.602688
293.866899
285.039292
276.134443
268.030907
261.239875
255.321654
250.000000
245.109502
240.558655
236.302996
232.325455
228.622452
225.194704
222.041865
219.159980
216.540826
214.172358
212.039640
210.125909
208.413524
206.884741
205.522284
204.309719
203.231689
202.274034
201.423819
200.669328
200.000000
400.000000
398.785459
397.416413
395.873750
394.136294
392.180721
389.981564
387.511311
384.740686
381.639151
378.175714
374.320133
370.044562
365.325655
360.147081
354.502218
348.396725
341.850474
334.898359
327.589599
319.985279
312.154113
304.166093
296.082645
287.939667
279.715201
272.176444
265.775080
260.098698
254.890498
250.000000
245.349359
240.908646
236.676961
232.668085
228.900145
225.388951
222.144418
219.169345
216.459772
214.006151
211.794859
209.809643
208.032874
206.446519
205.032838
203.774861
202.656671
201.663553
200.782062
200.000000
400.000000
398.725457
397.288907
395.670534
393.848523
391.799067
389.496489
386.913528
384.021861
380.792931
377.199155
373.215577
368.821956
364.005205
358.761944
353.100773
347.043780
340.626721
333.897586
326.913576
319.736793
312.429118
305.046143
297.628607
290.187171
282.671352
275.744113
269.796902
264.443037
259.441345
254.650641
250.000000
245.467201
241.061739
236.810924
232.748774
228.907865
225.314135
221.984390
218.925922
216.137496
213.611062
211.333629
209.289034
207.459400
205.826249
204.371312
203.077060
201.927022
200.905976
200.000000
400.000000
398.639328
397.105898
395.378911
393.435684
391.251790
388.801362
386.057649
382.993878
379.584530
375.807040
371.643961
367.085442
362.131769
356.795521
351.102767
345.092787
338.815966
332.330024
325.695224
318.969338
312.203020
305.435226
298.686710
291.946953
285.144881
278.849107
273.394249
268.419386
263.697004
259.091354
254.532799
250.000000
245.505846
241.085213
236.784061
232.650223
228.726414
225.045833
221.630271
218.490214
215.626284
213.031302
210.692498
208.593501
206.715976
205.040872
203.549297
202.223105
201.045257
200.000000
400.000000
398.525036
396.863095
394.992164
392.888558
390.527259
387.882499
384.928692
381.641776
378.001041
373.991401
369.606004
364.848856
359.736952
354.301300
348.586211
342.646593
336.543440
330.338320
324.088016
317.840235
311.630697
305.480737
299.392976
293.340265
287.238329
281.572428
276.626026
272.064817
267.674545
263.323039
258.938261
254.494154
250.000000
245.490924
241.018525
236.641712
232.418432
228.399176
224.622907
221.115408
217.889695
214.947745
212.282886
209.882267
207.729070
205.804319
204.088235
202.561187
201.204337
200.000000
400.000000
398.379283
396.553553
394.499422
392.192218
389.606622
386.717664
383.502173
379.940748
376.020220
371.736444
367.097086
362.123811
356.853168
351.335511
345.631647
339.807570
333.928185
328.051407
322.223822
316.478411
310.834003
305.295025
299.848912
294.456596
289.027049
283.973109
279.533612
275.401888
271.377548
267.331915
263.189076
258.914787
254.509076
250.000000
245.436988
240.883223
236.407361
232.075564
227.945049
224.059934
220.449646
217.129443
214.102416
211.362152
208.895475
206.684899
204.710597
202.951878
201.388235
200.000000
400.000000
398.197347
396.167337
393.885178
391.325473
388.463317
385.275870
381.744516
377.857561
373.613302
369.023034
364.113363
358.926970
353.521127
347.963656
342.326781
336.680053
331.083860
325.584891
320.214193
314.987519
309.906993
304.962400
300.129620
295.362140
290.567424
286.096027
282.148613